NiSi Orthorhombic                       
   1.00000000000000     
     3.015650    0.000000    0.000000
     0.000000    3.291248    0.000000
     0.000000    0.000000    4.716893
  Ni/0534bc51ca8  Si/79d9987ad87
               2               2
Direct
  0.250000  0.250000  0.657746
  0.750000  0.750000  0.342254
  0.250000  0.250000  0.157137
  0.750000  0.750000  0.842863
 
   48   48   72
 0.14656057876E+02 0.14654548730E+02 0.14649886586E+02 0.14641725970E+02 0.14629677507E+02
 0.14613553031E+02 0.14593633832E+02 0.14570884235E+02 0.14547025931E+02 0.14524410411E+02
 0.14505679909E+02 0.14493278276E+02 0.14488935902E+02 0.14493278276E+02 0.14505679909E+02
 0.14524410411E+02 0.14547025931E+02 0.14570884235E+02 0.14593633832E+02 0.14613553031E+02
 0.14629677507E+02 0.14641725970E+02 0.14649886586E+02 0.14654548730E+02 0.14656057876E+02
 0.14654548730E+02 0.14649886586E+02 0.14641725970E+02 0.14629677507E+02 0.14613553031E+02
 0.14593633832E+02 0.14570884235E+02 0.14547025931E+02 0.14524410411E+02 0.14505679909E+02
 0.14493278276E+02 0.14488935902E+02 0.14493278276E+02 0.14505679909E+02 0.14524410411E+02
 0.14547025931E+02 0.14570884235E+02 0.14593633832E+02 0.14613553031E+02 0.14629677507E+02
 0.14641725970E+02 0.14649886586E+02 0.14654548730E+02 0.14658140015E+02 0.14809138209E+02
 0.14953793197E+02 0.15088514350E+02 0.15209993516E+02 0.15315563064E+02 0.15403531808E+02
 0.15473415307E+02 0.15525976031E+02 0.15563017464E+02 0.15586936336E+02 0.15600114020E+02
 0.15604293688E+02 0.15600114020E+02 0.15586936336E+02 0.15563017464E+02 0.15525976031E+02
 0.15473415307E+02 0.15403531808E+02 0.15315563064E+02 0.15209993516E+02 0.15088514350E+02
 0.14953793197E+02 0.14809138209E+02 0.14658140015E+02 0.14504356682E+02 0.14351084938E+02
 0.14201242419E+02 0.14057369043E+02 0.13921735378E+02 0.13796519758E+02 0.13683989867E+02
 0.13586611150E+02 0.13507016309E+02 0.13447811068E+02 0.13411251141E+02 0.13398881012E+02
 0.13411251141E+02 0.13447811068E+02 0.13507016309E+02 0.13586611150E+02 0.13683989867E+02
 0.13796519758E+02 0.13921735378E+02 0.14057369043E+02 0.14201242419E+02 0.14351084938E+02
 0.14504356682E+02 0.14663691432E+02 0.14963592649E+02 0.15254590006E+02 0.15529998169E+02
 0.15783714081E+02 0.16010652241E+02 0.16207114392E+02 0.16371015635E+02 0.16501892258E+02
 0.16600646993E+02 0.16669047029E+02 0.16709064942E+02 0.16722215732E+02 0.16709064942E+02
 0.16669047029E+02 0.16600646993E+02 0.16501892258E+02 0.16371015635E+02 0.16207114392E+02
 0.16010652241E+02 0.15783714081E+02 0.15529998169E+02 0.15254590006E+02 0.14963592649E+02
 0.14663691432E+02 0.14361719045E+02 0.14064272248E+02 0.13777419802E+02 0.13506529697E+02
 0.13256226289E+02 0.13030461656E+02 0.12832655675E+02 0.12665838048E+02 0.12532725199E+02
 0.12435691051E+02 0.12376636124E+02 0.12356806000E+02 0.12376636124E+02 0.12435691051E+02
 0.12532725199E+02 0.12665838048E+02 0.12832655675E+02 0.13030461656E+02 0.13256226289E+02
 0.13506529697E+02 0.13777419802E+02 0.14064272248E+02 0.14361719045E+02 0.14670781793E+02
 0.15112445577E+02 0.15543442201E+02 0.15954265921E+02 0.16336246109E+02 0.16682011831E+02
 0.16985852121E+02 0.17243913502E+02 0.17454181417E+02 0.17616201812E+02 0.17730405947E+02
 0.17797986967E+02 0.17820320245E+02 0.17797986967E+02 0.17730405947E+02 0.17616201812E+02
 0.17454181417E+02 0.17243913502E+02 0.16985852121E+02 0.16682011831E+02 0.16336246109E+02
 0.15954265921E+02 0.15543442201E+02 0.15112445577E+02 0.14670781793E+02 0.14228277500E+02
 0.13794568592E+02 0.13378644227E+02 0.12988498173E+02 0.12630926656E+02 0.12311485260E+02
 0.12034582035E+02 0.11803652577E+02 0.11621348597E+02 0.11489681586E+02 0.11410093712E+02
 0.11383465260E+02 0.11410093712E+02 0.11489681586E+02 0.11621348597E+02 0.11803652577E+02
 0.12034582035E+02 0.12311485260E+02 0.12630926656E+02 0.12988498173E+02 0.13378644227E+02
 0.13794568592E+02 0.14228277500E+02 0.14676692881E+02 0.15249971492E+02 0.15811763353E+02
 0.16350118136E+02 0.16854106411E+02 0.17314256554E+02 0.17722857359E+02 0.18073900758E+02
 0.18361797668E+02 0.18583653663E+02 0.18739796109E+02 0.18832159137E+02 0.18862684063E+02
 0.18832159137E+02 0.18739796109E+02 0.18583653663E+02 0.18361797668E+02 0.18073900758E+02
 0.17722857359E+02 0.17314256554E+02 0.16854106411E+02 0.16350118136E+02 0.15811763353E+02
 0.15249971492E+02 0.14676692881E+02 0.14104356661E+02 0.13545267289E+02 0.13011003697E+02
 0.12511899449E+02 0.12056677996E+02 0.11652289843E+02 0.11303955062E+02 0.11015369992E+02
 0.10789006989E+02 0.10626429948E+02 0.10528564881E+02 0.10495893607E+02 0.10528564881E+02
 0.10626429948E+02 0.10789006989E+02 0.11015369992E+02 0.11303955062E+02 0.11652289843E+02
 0.12056677996E+02 0.12511899449E+02 0.13011003697E+02 0.13545267289E+02 0.14104356661E+02
 0.14678599876E+02 0.15370997212E+02 0.16052111856E+02 0.16707990611E+02 0.17325803960E+02
 0.17894194926E+02 0.18402015214E+02 0.18837140671E+02 0.19192259763E+02 0.19465084069E+02
 0.19656787114E+02 0.19770107625E+02 0.19807551151E+02 0.19770107625E+02 0.19656787114E+02
 0.19465084069E+02 0.19192259763E+02 0.18837140671E+02 0.18402015214E+02 0.17894194926E+02
 0.17325803960E+02 0.16707990611E+02 0.16052111856E+02 0.15370997212E+02 0.14678599876E+02
 0.13989483916E+02 0.13318173242E+02 0.12678432932E+02 0.12082589652E+02 0.11541005650E+02
 0.11061793418E+02 0.10650804308E+02 0.10311863560E+02 0.10047176456E+02 0.98578080436E+01
 0.97441431348E+01 0.97062555449E+01 0.97441431348E+01 0.98578080436E+01 0.10047176456E+02
 0.10311863560E+02 0.10650804308E+02 0.11061793418E+02 0.11541005650E+02 0.12082589652E+02
 0.12678432932E+02 0.13318173242E+02 0.13989483916E+02 0.14674366304E+02 0.15471714656E+02
 0.16258977473E+02 0.17020661768E+02 0.17742408567E+02 0.18408827246E+02 0.19001201892E+02
 0.19506099402E+02 0.19916619521E+02 0.20231244895E+02 0.20452018700E+02 0.20582440377E+02
 0.20625524864E+02 0.20582440377E+02 0.20452018700E+02 0.20231244895E+02 0.19916619521E+02
 0.19506099402E+02 0.19001201892E+02 0.18408827246E+02 0.17742408567E+02 0.17020661768E+02
 0.16258977473E+02 0.15471714656E+02 0.14674366304E+02 0.13883133503E+02 0.13114273448E+02
 0.12383295509E+02 0.11704139960E+02 0.11088497629E+02 0.10545402378E+02 0.10081162828E+02
 0.96996202170E+01 0.94026520508E+01 0.91908030302E+01 0.90639184661E+01 0.90216731421E+01
 0.90639184661E+01 0.91908030302E+01 0.94026520508E+01 0.96996202170E+01 0.10081162828E+02
 0.10545402378E+02 0.11088497629E+02 0.11704139960E+02 0.12383295509E+02 0.13114273448E+02
 0.13883133503E+02 0.14663265631E+02 0.15550320985E+02 0.16429311942E+02 0.17283644738E+02
 0.18096146128E+02 0.18842960341E+02 0.19503306066E+02 0.20063870221E+02 0.20518343455E+02
 0.20866012218E+02 0.21109722665E+02 0.21253627408E+02 0.21301158701E+02 0.21253627408E+02
 0.21109722665E+02 0.20866012218E+02 0.20518343455E+02 0.20063870221E+02 0.19503306066E+02
 0.18842960341E+02 0.18096146128E+02 0.17283644738E+02 0.16429311942E+02 0.15550320985E+02
 0.14663265631E+02 0.13785505556E+02 0.12934554915E+02 0.12127226968E+02 0.11378694520E+02
 0.10701668384E+02 0.10105872547E+02 0.95979174974E+01 0.91815738458E+01 0.88583609415E+01
 0.86283114999E+01 0.84907580286E+01 0.84450018094E+01 0.84907580286E+01 0.86283114999E+01
 0.88583609415E+01 0.91815738458E+01 0.95979174974E+01 0.10105872547E+02 0.10701668384E+02
 0.11378694520E+02 0.12127226968E+02 0.12934554915E+02 0.13785505556E+02 0.14646405777E+02
 0.15607298988E+02 0.16562666246E+02 0.17494880813E+02 0.18379680212E+02 0.19188927694E+02
 0.19901615637E+02 0.20504765464E+02 0.20992717386E+02 0.21365502032E+02 0.21626640621E+02
 0.21780796242E+02 0.21831710415E+02 0.21780796242E+02 0.21626640621E+02 0.21365502032E+02
 0.20992717386E+02 0.20504765464E+02 0.19901615637E+02 0.19188927694E+02 0.18379680212E+02
 0.17494880813E+02 0.16562666246E+02 0.15607298988E+02 0.14646405777E+02 0.13698090243E+02
 0.12780701001E+02 0.11911954824E+02 0.11107904956E+02 0.10381997603E+02 0.97444403686E+01
 0.92020187243E+01 0.87583781832E+01 0.84146827660E+01 0.81704921964E+01 0.80246774452E+01
 0.79762076447E+01 0.80246774452E+01 0.81704921964E+01 0.84146827660E+01 0.87583781832E+01
 0.92020187243E+01 0.97444403686E+01 0.10381997603E+02 0.11107904956E+02 0.11911954824E+02
 0.12780701001E+02 0.13698090243E+02 0.14626667663E+02 0.15645196677E+02 0.16660846800E+02
 0.17653431877E+02 0.18591910124E+02 0.19447105997E+02 0.20198031064E+02 0.20832122805E+02
 0.21344327673E+02 0.21735296553E+02 0.22009067863E+02 0.22170667040E+02 0.22224040667E+02
 0.22170667040E+02 0.22009067863E+02 0.21735296553E+02 0.21344327673E+02 0.20832122805E+02
 0.20198031064E+02 0.19447105997E+02 0.18591910124E+02 0.17653431877E+02 0.16660846800E+02
 0.15645196677E+02 0.14626667663E+02 0.13623786410E+02 0.12655399335E+02 0.11739796045E+02
 0.10893611467E+02 0.10130784312E+02 0.94618353575E+01 0.88936328840E+01 0.84296775139E+01
 0.80708142166E+01 0.78161984103E+01 0.76643140749E+01 0.76138543408E+01 0.76643140749E+01
 0.78161984103E+01 0.80708142166E+01 0.84296775139E+01 0.88936328840E+01 0.94618353575E+01
 0.10130784312E+02 0.10893611467E+02 0.11739796045E+02 0.12655399335E+02 0.13623786410E+02
 0.14608093566E+02 0.15667883808E+02 0.16727076806E+02 0.17761595585E+02 0.18736783735E+02
 0.19623172954E+02 0.20399899486E+02 0.21054784749E+02 0.21583260407E+02 0.21986436058E+02
 0.22268705561E+02 0.22435324585E+02 0.22490359460E+02 0.22435324585E+02 0.22268705561E+02
 0.21986436058E+02 0.21583260407E+02 0.21054784749E+02 0.20399899486E+02 0.19623172954E+02
 0.18736783735E+02 0.17761595585E+02 0.16727076806E+02 0.15667883808E+02 0.14608093566E+02
 0.13566467152E+02 0.12562111185E+02 0.11613641232E+02 0.10738040961E+02 0.99495494816E+01
 0.92588713280E+01 0.86729012767E+01 0.81950083356E+01 0.78257850196E+01 0.75640773149E+01
 0.74080770096E+01 0.73562701722E+01 0.74080770096E+01 0.75640773149E+01 0.78257850196E+01
 0.81950083356E+01 0.86729012767E+01 0.92588713280E+01 0.99495494816E+01 0.10738040961E+02
 0.11613641232E+02 0.12562111185E+02 0.13566467152E+02 0.14594847626E+02 0.15679429730E+02
 0.16764815146E+02 0.17823803938E+02 0.18820287737E+02 0.19724675700E+02 0.20516225460E+02
 0.21183024369E+02 0.21720815302E+02 0.22130987124E+02 0.22418138306E+02 0.22587647787E+02
 0.22643640666E+02 0.22587647787E+02 0.22418138306E+02 0.22130987124E+02 0.21720815302E+02
 0.21183024369E+02 0.20516225460E+02 0.19724675700E+02 0.18820287737E+02 0.17823803938E+02
 0.16764815146E+02 0.15679429730E+02 0.14594847626E+02 0.13530083171E+02 0.12504356490E+02
 0.11536441121E+02 0.10643499567E+02 0.98399277581E+01 0.91365224819E+01 0.85401800372E+01
 0.80541784043E+01 0.76789483094E+01 0.74131415145E+01 0.72547679864E+01 0.72021854713E+01
 0.72547679864E+01 0.74131415145E+01 0.76789483094E+01 0.80541784043E+01 0.85401800372E+01
 0.91365224819E+01 0.98399277581E+01 0.10643499567E+02 0.11536441121E+02 0.12504356490E+02
 0.13530083171E+02 0.14590047411E+02 0.15682899374E+02 0.16776999022E+02 0.17844020387E+02
 0.18847473157E+02 0.19757734442E+02 0.20554110340E+02 0.21224782789E+02 0.21765601802E+02
 0.22178049604E+02 0.22466791273E+02 0.22637243767E+02 0.22693549568E+02 0.22637243767E+02
 0.22466791273E+02 0.22178049604E+02 0.21765601802E+02 0.21224782789E+02 0.20554110340E+02
 0.19757734442E+02 0.18847473157E+02 0.17844020387E+02 0.16776999022E+02 0.15682899374E+02
 0.14590047411E+02 0.13517590022E+02 0.12484777588E+02 0.11510429577E+02 0.10611762636E+02
 0.98032207489E+01 0.90956282362E+01 0.84958793657E+01 0.80072196796E+01 0.76300242059E+01
 0.73628785086E+01 0.72037308446E+01 0.71508954952E+01 0.72037308446E+01 0.73628785086E+01
 0.76300242059E+01 0.80072196796E+01 0.84958793657E+01 0.90956282362E+01 0.98032207489E+01
 0.10611762636E+02 0.11510429577E+02 0.12484777588E+02 0.13517590022E+02 0.14594847626E+02
 0.15679429730E+02 0.16764815146E+02 0.17823803938E+02 0.18820287737E+02 0.19724675700E+02
 0.20516225460E+02 0.21183024369E+02 0.21720815302E+02 0.22130987124E+02 0.22418138306E+02
 0.22587647787E+02 0.22643640666E+02 0.22587647787E+02 0.22418138306E+02 0.22130987124E+02
 0.21720815302E+02 0.21183024369E+02 0.20516225460E+02 0.19724675700E+02 0.18820287737E+02
 0.17823803938E+02 0.16764815146E+02 0.15679429730E+02 0.14594847626E+02 0.13530083171E+02
 0.12504356490E+02 0.11536441121E+02 0.10643499567E+02 0.98399277581E+01 0.91365224819E+01
 0.85401800372E+01 0.80541784043E+01 0.76789483094E+01 0.74131415145E+01 0.72547679864E+01
 0.72021854713E+01 0.72547679864E+01 0.74131415145E+01 0.76789483094E+01 0.80541784043E+01
 0.85401800372E+01 0.91365224819E+01 0.98399277581E+01 0.10643499567E+02 0.11536441121E+02
 0.12504356490E+02 0.13530083171E+02 0.14608093566E+02 0.15667883808E+02 0.16727076806E+02
 0.17761595585E+02 0.18736783735E+02 0.19623172954E+02 0.20399899486E+02 0.21054784749E+02
 0.21583260407E+02 0.21986436058E+02 0.22268705561E+02 0.22435324585E+02 0.22490359460E+02
 0.22435324585E+02 0.22268705561E+02 0.21986436058E+02 0.21583260407E+02 0.21054784749E+02
 0.20399899486E+02 0.19623172954E+02 0.18736783735E+02 0.17761595585E+02 0.16727076806E+02
 0.15667883808E+02 0.14608093566E+02 0.13566467152E+02 0.12562111185E+02 0.11613641232E+02
 0.10738040961E+02 0.99495494816E+01 0.92588713280E+01 0.86729012767E+01 0.81950083356E+01
 0.78257850196E+01 0.75640773149E+01 0.74080770096E+01 0.73562701722E+01 0.74080770096E+01
 0.75640773149E+01 0.78257850196E+01 0.81950083356E+01 0.86729012767E+01 0.92588713280E+01
 0.99495494816E+01 0.10738040961E+02 0.11613641232E+02 0.12562111185E+02 0.13566467152E+02
 0.14626667663E+02 0.15645196677E+02 0.16660846800E+02 0.17653431877E+02 0.18591910124E+02
 0.19447105997E+02 0.20198031064E+02 0.20832122805E+02 0.21344327673E+02 0.21735296553E+02
 0.22009067863E+02 0.22170667040E+02 0.22224040667E+02 0.22170667040E+02 0.22009067863E+02
 0.21735296553E+02 0.21344327673E+02 0.20832122805E+02 0.20198031064E+02 0.19447105997E+02
 0.18591910124E+02 0.17653431877E+02 0.16660846800E+02 0.15645196677E+02 0.14626667663E+02
 0.13623786410E+02 0.12655399335E+02 0.11739796045E+02 0.10893611467E+02 0.10130784312E+02
 0.94618353575E+01 0.88936328840E+01 0.84296775139E+01 0.80708142166E+01 0.78161984103E+01
 0.76643140749E+01 0.76138543408E+01 0.76643140749E+01 0.78161984103E+01 0.80708142166E+01
 0.84296775139E+01 0.88936328840E+01 0.94618353575E+01 0.10130784312E+02 0.10893611467E+02
 0.11739796045E+02 0.12655399335E+02 0.13623786410E+02 0.14646405777E+02 0.15607298988E+02
 0.16562666246E+02 0.17494880813E+02 0.18379680212E+02 0.19188927694E+02 0.19901615637E+02
 0.20504765464E+02 0.20992717386E+02 0.21365502032E+02 0.21626640621E+02 0.21780796242E+02
 0.21831710415E+02 0.21780796242E+02 0.21626640621E+02 0.21365502032E+02 0.20992717386E+02
 0.20504765464E+02 0.19901615637E+02 0.19188927694E+02 0.18379680212E+02 0.17494880813E+02
 0.16562666246E+02 0.15607298988E+02 0.14646405777E+02 0.13698090243E+02 0.12780701001E+02
 0.11911954824E+02 0.11107904956E+02 0.10381997603E+02 0.97444403686E+01 0.92020187243E+01
 0.87583781832E+01 0.84146827660E+01 0.81704921964E+01 0.80246774452E+01 0.79762076447E+01
 0.80246774452E+01 0.81704921964E+01 0.84146827660E+01 0.87583781832E+01 0.92020187243E+01
 0.97444403686E+01 0.10381997603E+02 0.11107904956E+02 0.11911954824E+02 0.12780701001E+02
 0.13698090243E+02 0.14663265631E+02 0.15550320985E+02 0.16429311942E+02 0.17283644738E+02
 0.18096146128E+02 0.18842960341E+02 0.19503306066E+02 0.20063870221E+02 0.20518343455E+02
 0.20866012218E+02 0.21109722665E+02 0.21253627408E+02 0.21301158701E+02 0.21253627408E+02
 0.21109722665E+02 0.20866012218E+02 0.20518343455E+02 0.20063870221E+02 0.19503306066E+02
 0.18842960341E+02 0.18096146128E+02 0.17283644738E+02 0.16429311942E+02 0.15550320985E+02
 0.14663265631E+02 0.13785505556E+02 0.12934554915E+02 0.12127226968E+02 0.11378694520E+02
 0.10701668384E+02 0.10105872547E+02 0.95979174974E+01 0.91815738458E+01 0.88583609415E+01
 0.86283114999E+01 0.84907580286E+01 0.84450018094E+01 0.84907580286E+01 0.86283114999E+01
 0.88583609415E+01 0.91815738458E+01 0.95979174974E+01 0.10105872547E+02 0.10701668384E+02
 0.11378694520E+02 0.12127226968E+02 0.12934554915E+02 0.13785505556E+02 0.14674366304E+02
 0.15471714656E+02 0.16258977473E+02 0.17020661768E+02 0.17742408567E+02 0.18408827246E+02
 0.19001201892E+02 0.19506099402E+02 0.19916619521E+02 0.20231244895E+02 0.20452018700E+02
 0.20582440377E+02 0.20625524864E+02 0.20582440377E+02 0.20452018700E+02 0.20231244895E+02
 0.19916619521E+02 0.19506099402E+02 0.19001201892E+02 0.18408827246E+02 0.17742408567E+02
 0.17020661768E+02 0.16258977473E+02 0.15471714656E+02 0.14674366304E+02 0.13883133503E+02
 0.13114273448E+02 0.12383295509E+02 0.11704139960E+02 0.11088497629E+02 0.10545402378E+02
 0.10081162828E+02 0.96996202170E+01 0.94026520508E+01 0.91908030302E+01 0.90639184661E+01
 0.90216731421E+01 0.90639184661E+01 0.91908030302E+01 0.94026520508E+01 0.96996202170E+01
 0.10081162828E+02 0.10545402378E+02 0.11088497629E+02 0.11704139960E+02 0.12383295509E+02
 0.13114273448E+02 0.13883133503E+02 0.14678599876E+02 0.15370997212E+02 0.16052111856E+02
 0.16707990611E+02 0.17325803960E+02 0.17894194926E+02 0.18402015214E+02 0.18837140671E+02
 0.19192259763E+02 0.19465084069E+02 0.19656787114E+02 0.19770107625E+02 0.19807551151E+02
 0.19770107625E+02 0.19656787114E+02 0.19465084069E+02 0.19192259763E+02 0.18837140671E+02
 0.18402015214E+02 0.17894194926E+02 0.17325803960E+02 0.16707990611E+02 0.16052111856E+02
 0.15370997212E+02 0.14678599876E+02 0.13989483916E+02 0.13318173242E+02 0.12678432932E+02
 0.12082589652E+02 0.11541005650E+02 0.11061793418E+02 0.10650804308E+02 0.10311863560E+02
 0.10047176456E+02 0.98578080436E+01 0.97441431348E+01 0.97062555449E+01 0.97441431348E+01
 0.98578080436E+01 0.10047176456E+02 0.10311863560E+02 0.10650804308E+02 0.11061793418E+02
 0.11541005650E+02 0.12082589652E+02 0.12678432932E+02 0.13318173242E+02 0.13989483916E+02
 0.14676692881E+02 0.15249971492E+02 0.15811763353E+02 0.16350118136E+02 0.16854106411E+02
 0.17314256554E+02 0.17722857359E+02 0.18073900758E+02 0.18361797668E+02 0.18583653663E+02
 0.18739796109E+02 0.18832159137E+02 0.18862684063E+02 0.18832159137E+02 0.18739796109E+02
 0.18583653663E+02 0.18361797668E+02 0.18073900758E+02 0.17722857359E+02 0.17314256554E+02
 0.16854106411E+02 0.16350118136E+02 0.15811763353E+02 0.15249971492E+02 0.14676692881E+02
 0.14104356661E+02 0.13545267289E+02 0.13011003697E+02 0.12511899449E+02 0.12056677996E+02
 0.11652289843E+02 0.11303955062E+02 0.11015369992E+02 0.10789006989E+02 0.10626429948E+02
 0.10528564881E+02 0.10495893607E+02 0.10528564881E+02 0.10626429948E+02 0.10789006989E+02
 0.11015369992E+02 0.11303955062E+02 0.11652289843E+02 0.12056677996E+02 0.12511899449E+02
 0.13011003697E+02 0.13545267289E+02 0.14104356661E+02 0.14670781793E+02 0.15112445577E+02
 0.15543442201E+02 0.15954265921E+02 0.16336246109E+02 0.16682011831E+02 0.16985852121E+02
 0.17243913502E+02 0.17454181417E+02 0.17616201812E+02 0.17730405947E+02 0.17797986967E+02
 0.17820320245E+02 0.17797986967E+02 0.17730405947E+02 0.17616201812E+02 0.17454181417E+02
 0.17243913502E+02 0.16985852121E+02 0.16682011831E+02 0.16336246109E+02 0.15954265921E+02
 0.15543442201E+02 0.15112445577E+02 0.14670781793E+02 0.14228277500E+02 0.13794568592E+02
 0.13378644227E+02 0.12988498173E+02 0.12630926656E+02 0.12311485260E+02 0.12034582035E+02
 0.11803652577E+02 0.11621348597E+02 0.11489681586E+02 0.11410093712E+02 0.11383465260E+02
 0.11410093712E+02 0.11489681586E+02 0.11621348597E+02 0.11803652577E+02 0.12034582035E+02
 0.12311485260E+02 0.12630926656E+02 0.12988498173E+02 0.13378644227E+02 0.13794568592E+02
 0.14228277500E+02 0.14663691432E+02 0.14963592649E+02 0.15254590006E+02 0.15529998169E+02
 0.15783714081E+02 0.16010652241E+02 0.16207114392E+02 0.16371015635E+02 0.16501892258E+02
 0.16600646993E+02 0.16669047029E+02 0.16709064942E+02 0.16722215732E+02 0.16709064942E+02
 0.16669047029E+02 0.16600646993E+02 0.16501892258E+02 0.16371015635E+02 0.16207114392E+02
 0.16010652241E+02 0.15783714081E+02 0.15529998169E+02 0.15254590006E+02 0.14963592649E+02
 0.14663691432E+02 0.14361719045E+02 0.14064272248E+02 0.13777419802E+02 0.13506529697E+02
 0.13256226289E+02 0.13030461656E+02 0.12832655675E+02 0.12665838048E+02 0.12532725199E+02
 0.12435691051E+02 0.12376636124E+02 0.12356806000E+02 0.12376636124E+02 0.12435691051E+02
 0.12532725199E+02 0.12665838048E+02 0.12832655675E+02 0.13030461656E+02 0.13256226289E+02
 0.13506529697E+02 0.13777419802E+02 0.14064272248E+02 0.14361719045E+02 0.14658140015E+02
 0.14809138209E+02 0.14953793197E+02 0.15088514350E+02 0.15209993516E+02 0.15315563064E+02
 0.15403531808E+02 0.15473415307E+02 0.15525976031E+02 0.15563017464E+02 0.15586936336E+02
 0.15600114020E+02 0.15604293688E+02 0.15600114020E+02 0.15586936336E+02 0.15563017464E+02
 0.15525976031E+02 0.15473415307E+02 0.15403531808E+02 0.15315563064E+02 0.15209993516E+02
 0.15088514350E+02 0.14953793197E+02 0.14809138209E+02 0.14658140015E+02 0.14504356682E+02
 0.14351084938E+02 0.14201242419E+02 0.14057369043E+02 0.13921735378E+02 0.13796519758E+02
 0.13683989867E+02 0.13586611150E+02 0.13507016309E+02 0.13447811068E+02 0.13411251141E+02
 0.13398881012E+02 0.13411251141E+02 0.13447811068E+02 0.13507016309E+02 0.13586611150E+02
 0.13683989867E+02 0.13796519758E+02 0.13921735378E+02 0.14057369043E+02 0.14201242419E+02
 0.14351084938E+02 0.14504356682E+02 0.14656057876E+02 0.14654548730E+02 0.14649886586E+02
 0.14641725970E+02 0.14629677507E+02 0.14613553031E+02 0.14593633832E+02 0.14570884235E+02
 0.14547025931E+02 0.14524410411E+02 0.14505679909E+02 0.14493278276E+02 0.14488935902E+02
 0.14493278276E+02 0.14505679909E+02 0.14524410411E+02 0.14547025931E+02 0.14570884235E+02
 0.14593633832E+02 0.14613553031E+02 0.14629677507E+02 0.14641725970E+02 0.14649886586E+02
 0.14654548730E+02 0.14656057876E+02 0.14654548730E+02 0.14649886586E+02 0.14641725970E+02
 0.14629677507E+02 0.14613553031E+02 0.14593633832E+02 0.14570884235E+02 0.14547025931E+02
 0.14524410411E+02 0.14505679909E+02 0.14493278276E+02 0.14488935902E+02 0.14493278276E+02
 0.14505679909E+02 0.14524410411E+02 0.14547025931E+02 0.14570884235E+02 0.14593633832E+02
 0.14613553031E+02 0.14629677507E+02 0.14641725970E+02 0.14649886586E+02 0.14654548730E+02
 0.14658140015E+02 0.14504356682E+02 0.14351084938E+02 0.14201242419E+02 0.14057369043E+02
 0.13921735378E+02 0.13796519758E+02 0.13683989867E+02 0.13586611150E+02 0.13507016309E+02
 0.13447811068E+02 0.13411251141E+02 0.13398881012E+02 0.13411251141E+02 0.13447811068E+02
 0.13507016309E+02 0.13586611150E+02 0.13683989867E+02 0.13796519758E+02 0.13921735378E+02
 0.14057369043E+02 0.14201242419E+02 0.14351084938E+02 0.14504356682E+02 0.14658140015E+02
 0.14809138209E+02 0.14953793197E+02 0.15088514350E+02 0.15209993516E+02 0.15315563064E+02
 0.15403531808E+02 0.15473415307E+02 0.15525976031E+02 0.15563017464E+02 0.15586936336E+02
 0.15600114020E+02 0.15604293688E+02 0.15600114020E+02 0.15586936336E+02 0.15563017464E+02
 0.15525976031E+02 0.15473415307E+02 0.15403531808E+02 0.15315563064E+02 0.15209993516E+02
 0.15088514350E+02 0.14953793197E+02 0.14809138209E+02 0.14663691432E+02 0.14361719045E+02
 0.14064272248E+02 0.13777419802E+02 0.13506529697E+02 0.13256226289E+02 0.13030461656E+02
 0.12832655675E+02 0.12665838048E+02 0.12532725199E+02 0.12435691051E+02 0.12376636124E+02
 0.12356806000E+02 0.12376636124E+02 0.12435691051E+02 0.12532725199E+02 0.12665838048E+02
 0.12832655675E+02 0.13030461656E+02 0.13256226289E+02 0.13506529697E+02 0.13777419802E+02
 0.14064272248E+02 0.14361719045E+02 0.14663691432E+02 0.14963592649E+02 0.15254590006E+02
 0.15529998169E+02 0.15783714081E+02 0.16010652241E+02 0.16207114392E+02 0.16371015635E+02
 0.16501892258E+02 0.16600646993E+02 0.16669047029E+02 0.16709064942E+02 0.16722215732E+02
 0.16709064942E+02 0.16669047029E+02 0.16600646993E+02 0.16501892258E+02 0.16371015635E+02
 0.16207114392E+02 0.16010652241E+02 0.15783714081E+02 0.15529998169E+02 0.15254590006E+02
 0.14963592649E+02 0.14670781793E+02 0.14228277500E+02 0.13794568592E+02 0.13378644227E+02
 0.12988498173E+02 0.12630926656E+02 0.12311485260E+02 0.12034582035E+02 0.11803652577E+02
 0.11621348597E+02 0.11489681586E+02 0.11410093712E+02 0.11383465260E+02 0.11410093712E+02
 0.11489681586E+02 0.11621348597E+02 0.11803652577E+02 0.12034582035E+02 0.12311485260E+02
 0.12630926656E+02 0.12988498173E+02 0.13378644227E+02 0.13794568592E+02 0.14228277500E+02
 0.14670781793E+02 0.15112445577E+02 0.15543442201E+02 0.15954265921E+02 0.16336246109E+02
 0.16682011831E+02 0.16985852121E+02 0.17243913502E+02 0.17454181417E+02 0.17616201812E+02
 0.17730405947E+02 0.17797986967E+02 0.17820320245E+02 0.17797986967E+02 0.17730405947E+02
 0.17616201812E+02 0.17454181417E+02 0.17243913502E+02 0.16985852121E+02 0.16682011831E+02
 0.16336246109E+02 0.15954265921E+02 0.15543442201E+02 0.15112445577E+02 0.14676692881E+02
 0.14104356661E+02 0.13545267289E+02 0.13011003697E+02 0.12511899449E+02 0.12056677996E+02
 0.11652289843E+02 0.11303955062E+02 0.11015369992E+02 0.10789006989E+02 0.10626429948E+02
 0.10528564881E+02 0.10495893607E+02 0.10528564881E+02 0.10626429948E+02 0.10789006989E+02
 0.11015369992E+02 0.11303955062E+02 0.11652289843E+02 0.12056677996E+02 0.12511899449E+02
 0.13011003697E+02 0.13545267289E+02 0.14104356661E+02 0.14676692881E+02 0.15249971492E+02
 0.15811763353E+02 0.16350118136E+02 0.16854106411E+02 0.17314256554E+02 0.17722857359E+02
 0.18073900758E+02 0.18361797668E+02 0.18583653663E+02 0.18739796109E+02 0.18832159137E+02
 0.18862684063E+02 0.18832159137E+02 0.18739796109E+02 0.18583653663E+02 0.18361797668E+02
 0.18073900758E+02 0.17722857359E+02 0.17314256554E+02 0.16854106411E+02 0.16350118136E+02
 0.15811763353E+02 0.15249971492E+02 0.14678599876E+02 0.13989483916E+02 0.13318173242E+02
 0.12678432932E+02 0.12082589652E+02 0.11541005650E+02 0.11061793418E+02 0.10650804308E+02
 0.10311863560E+02 0.10047176456E+02 0.98578080436E+01 0.97441431348E+01 0.97062555449E+01
 0.97441431348E+01 0.98578080436E+01 0.10047176456E+02 0.10311863560E+02 0.10650804308E+02
 0.11061793418E+02 0.11541005650E+02 0.12082589652E+02 0.12678432932E+02 0.13318173242E+02
 0.13989483916E+02 0.14678599876E+02 0.15370997212E+02 0.16052111856E+02 0.16707990611E+02
 0.17325803960E+02 0.17894194926E+02 0.18402015214E+02 0.18837140671E+02 0.19192259763E+02
 0.19465084069E+02 0.19656787114E+02 0.19770107625E+02 0.19807551151E+02 0.19770107625E+02
 0.19656787114E+02 0.19465084069E+02 0.19192259763E+02 0.18837140671E+02 0.18402015214E+02
 0.17894194926E+02 0.17325803960E+02 0.16707990611E+02 0.16052111856E+02 0.15370997212E+02
 0.14674366304E+02 0.13883133503E+02 0.13114273448E+02 0.12383295509E+02 0.11704139960E+02
 0.11088497629E+02 0.10545402378E+02 0.10081162828E+02 0.96996202170E+01 0.94026520508E+01
 0.91908030302E+01 0.90639184661E+01 0.90216731421E+01 0.90639184661E+01 0.91908030302E+01
 0.94026520508E+01 0.96996202170E+01 0.10081162828E+02 0.10545402378E+02 0.11088497629E+02
 0.11704139960E+02 0.12383295509E+02 0.13114273448E+02 0.13883133503E+02 0.14674366304E+02
 0.15471714656E+02 0.16258977473E+02 0.17020661768E+02 0.17742408567E+02 0.18408827246E+02
 0.19001201892E+02 0.19506099402E+02 0.19916619521E+02 0.20231244895E+02 0.20452018700E+02
 0.20582440377E+02 0.20625524864E+02 0.20582440377E+02 0.20452018700E+02 0.20231244895E+02
 0.19916619521E+02 0.19506099402E+02 0.19001201892E+02 0.18408827246E+02 0.17742408567E+02
 0.17020661768E+02 0.16258977473E+02 0.15471714656E+02 0.14663265631E+02 0.13785505556E+02
 0.12934554915E+02 0.12127226968E+02 0.11378694520E+02 0.10701668384E+02 0.10105872547E+02
 0.95979174974E+01 0.91815738458E+01 0.88583609415E+01 0.86283114999E+01 0.84907580286E+01
 0.84450018094E+01 0.84907580286E+01 0.86283114999E+01 0.88583609415E+01 0.91815738458E+01
 0.95979174974E+01 0.10105872547E+02 0.10701668384E+02 0.11378694520E+02 0.12127226968E+02
 0.12934554915E+02 0.13785505556E+02 0.14663265631E+02 0.15550320985E+02 0.16429311942E+02
 0.17283644738E+02 0.18096146128E+02 0.18842960341E+02 0.19503306066E+02 0.20063870221E+02
 0.20518343455E+02 0.20866012218E+02 0.21109722665E+02 0.21253627408E+02 0.21301158701E+02
 0.21253627408E+02 0.21109722665E+02 0.20866012218E+02 0.20518343455E+02 0.20063870221E+02
 0.19503306066E+02 0.18842960341E+02 0.18096146128E+02 0.17283644738E+02 0.16429311942E+02
 0.15550320985E+02 0.14646405777E+02 0.13698090243E+02 0.12780701001E+02 0.11911954824E+02
 0.11107904956E+02 0.10381997603E+02 0.97444403686E+01 0.92020187243E+01 0.87583781832E+01
 0.84146827660E+01 0.81704921964E+01 0.80246774452E+01 0.79762076447E+01 0.80246774452E+01
 0.81704921964E+01 0.84146827660E+01 0.87583781832E+01 0.92020187243E+01 0.97444403686E+01
 0.10381997603E+02 0.11107904956E+02 0.11911954824E+02 0.12780701001E+02 0.13698090243E+02
 0.14646405777E+02 0.15607298988E+02 0.16562666246E+02 0.17494880813E+02 0.18379680212E+02
 0.19188927694E+02 0.19901615637E+02 0.20504765464E+02 0.20992717386E+02 0.21365502032E+02
 0.21626640621E+02 0.21780796242E+02 0.21831710415E+02 0.21780796242E+02 0.21626640621E+02
 0.21365502032E+02 0.20992717386E+02 0.20504765464E+02 0.19901615637E+02 0.19188927694E+02
 0.18379680212E+02 0.17494880813E+02 0.16562666246E+02 0.15607298988E+02 0.14626667663E+02
 0.13623786410E+02 0.12655399335E+02 0.11739796045E+02 0.10893611467E+02 0.10130784312E+02
 0.94618353575E+01 0.88936328840E+01 0.84296775139E+01 0.80708142166E+01 0.78161984103E+01
 0.76643140749E+01 0.76138543408E+01 0.76643140749E+01 0.78161984103E+01 0.80708142166E+01
 0.84296775139E+01 0.88936328840E+01 0.94618353575E+01 0.10130784312E+02 0.10893611467E+02
 0.11739796045E+02 0.12655399335E+02 0.13623786410E+02 0.14626667663E+02 0.15645196677E+02
 0.16660846800E+02 0.17653431877E+02 0.18591910124E+02 0.19447105997E+02 0.20198031064E+02
 0.20832122805E+02 0.21344327673E+02 0.21735296553E+02 0.22009067863E+02 0.22170667040E+02
 0.22224040667E+02 0.22170667040E+02 0.22009067863E+02 0.21735296553E+02 0.21344327673E+02