NiSi Orthorhombic                       
   1.00000000000000     
     3.015650    0.000000    0.000000
     0.000000    3.291248    0.000000
     0.000000    0.000000    4.716893
  Ni/0534bc51ca8  Si/79d9987ad87
               2               2
Direct
  0.250000  0.250000  0.657746
  0.750000  0.750000  0.342254
  0.250000  0.250000  0.157137
  0.750000  0.750000  0.842863
 
   48   48   72
 0.14656037005E+02 0.14654527825E+02 0.14649865581E+02 0.14641704813E+02 0.14629656158E+02
 0.14613531475E+02 0.14593612070E+02 0.14570862281E+02 0.14547003816E+02 0.14524388172E+02
 0.14505657583E+02 0.14493255898E+02 0.14488913507E+02 0.14493255898E+02 0.14505657583E+02
 0.14524388172E+02 0.14547003816E+02 0.14570862281E+02 0.14593612070E+02 0.14613531475E+02
 0.14629656158E+02 0.14641704813E+02 0.14649865581E+02 0.14654527825E+02 0.14656037005E+02
 0.14654527825E+02 0.14649865581E+02 0.14641704813E+02 0.14629656158E+02 0.14613531475E+02
 0.14593612070E+02 0.14570862281E+02 0.14547003816E+02 0.14524388172E+02 0.14505657583E+02
 0.14493255898E+02 0.14488913507E+02 0.14493255898E+02 0.14505657583E+02 0.14524388172E+02
 0.14547003816E+02 0.14570862281E+02 0.14593612070E+02 0.14613531475E+02 0.14629656158E+02
 0.14641704813E+02 0.14649865581E+02 0.14654527825E+02 0.14658119078E+02 0.14809116954E+02
 0.14953771578E+02 0.15088492340E+02 0.15209971120E+02 0.15315540306E+02 0.15403508734E+02
 0.15473391981E+02 0.15525952516E+02 0.15562993819E+02 0.15586912610E+02 0.15600090252E+02
 0.15604269907E+02 0.15600090252E+02 0.15586912610E+02 0.15562993819E+02 0.15525952516E+02
 0.15473391981E+02 0.15403508734E+02 0.15315540306E+02 0.15209971120E+02 0.15088492340E+02
 0.14953771578E+02 0.14809116954E+02 0.14658119078E+02 0.14504335999E+02 0.14351064437E+02
 0.14201222028E+02 0.14057348698E+02 0.13921715024E+02 0.13796499359E+02 0.13683969405E+02
 0.13586590616E+02 0.13506995707E+02 0.13447790412E+02 0.13411230451E+02 0.13398860310E+02
 0.13411230451E+02 0.13447790412E+02 0.13506995707E+02 0.13586590616E+02 0.13683969405E+02
 0.13796499359E+02 0.13921715024E+02 0.14057348698E+02 0.14201222028E+02 0.14351064437E+02
 0.14504335999E+02 0.14663670305E+02 0.14963570943E+02 0.15254567703E+02 0.15529975289E+02
 0.15783690674E+02 0.16010628392E+02 0.16207090208E+02 0.16370991219E+02 0.16501867711E+02
 0.16600622390E+02 0.16669022413E+02 0.16709040329E+02 0.16722191122E+02 0.16709040329E+02
 0.16669022413E+02 0.16600622390E+02 0.16501867711E+02 0.16370991219E+02 0.16207090208E+02
 0.16010628392E+02 0.15783690674E+02 0.15529975289E+02 0.15254567703E+02 0.14963570943E+02
 0.14663670305E+02 0.14361698449E+02 0.14064252115E+02 0.13777400051E+02 0.13506510243E+02
 0.13256207054E+02 0.13030442570E+02 0.12832636681E+02 0.12665819108E+02 0.12532706286E+02
 0.12435672149E+02 0.12376617225E+02 0.12356787101E+02 0.12376617225E+02 0.12435672149E+02
 0.12532706286E+02 0.12665819108E+02 0.12832636681E+02 0.13030442570E+02 0.13256207054E+02
 0.13506510243E+02 0.13777400051E+02 0.14064252115E+02 0.14361698449E+02 0.14670760376E+02
 0.15112423357E+02 0.15543419207E+02 0.15954242224E+02 0.16336221835E+02 0.16681987137E+02
 0.16985827170E+02 0.17243888452E+02 0.17454156374E+02 0.17616176835E+02 0.17730381057E+02
 0.17797962151E+02 0.17820295457E+02 0.17797962151E+02 0.17730381057E+02 0.17616176835E+02
 0.17454156374E+02 0.17243888452E+02 0.16985827170E+02 0.16681987137E+02 0.16336221835E+02
 0.15954242224E+02 0.15543419207E+02 0.15112423357E+02 0.14670760376E+02 0.14228256866E+02
 0.13794548687E+02 0.13378624967E+02 0.12988479465E+02 0.12630908398E+02 0.12311467357E+02
 0.12034564402E+02 0.11803635139E+02 0.11621331293E+02 0.11489664368E+02 0.11410076542E+02
 0.11383448106E+02 0.11410076542E+02 0.11489664368E+02 0.11621331293E+02 0.11803635139E+02
 0.12034564402E+02 0.12311467357E+02 0.12630908398E+02 0.12988479465E+02 0.13378624967E+02
 0.13794548687E+02 0.14228256866E+02 0.14676671110E+02 0.15249948748E+02 0.15811739718E+02
 0.16350093767E+02 0.16854081515E+02 0.17314231362E+02 0.17722832095E+02 0.18073875580E+02
 0.18361772711E+02 0.18583629021E+02 0.18739771798E+02 0.18832135071E+02 0.18862660088E+02
 0.18832135071E+02 0.18739771798E+02 0.18583629021E+02 0.18361772711E+02 0.18073875580E+02
 0.17722832095E+02 0.17314231362E+02 0.16854081515E+02 0.16350093767E+02 0.15811739718E+02
 0.15249948748E+02 0.14676671110E+02 0.14104335888E+02 0.13545247480E+02 0.13010984781E+02
 0.12511881323E+02 0.12056660549E+02 0.11652272954E+02 0.11303938618E+02 0.11015353889E+02
 0.10788991137E+02 0.10626414265E+02 0.10528549296E+02 0.10495878053E+02 0.10528549296E+02
 0.10626414265E+02 0.10788991137E+02 0.11015353889E+02 0.11303938618E+02 0.11652272954E+02
 0.12056660549E+02 0.12511881323E+02 0.13010984781E+02 0.13545247480E+02 0.14104335888E+02
 0.14678577731E+02 0.15370973978E+02 0.16052087700E+02 0.16707965778E+02 0.17325778744E+02
 0.17894169626E+02 0.18401990076E+02 0.18837115983E+02 0.19192235775E+02 0.19465060880E+02
 0.19656764638E+02 0.19770085636E+02 0.19807529334E+02 0.19770085636E+02 0.19656764638E+02
 0.19465060880E+02 0.19192235775E+02 0.18837115983E+02 0.18401990076E+02 0.17894169626E+02
 0.17325778744E+02 0.16707965778E+02 0.16052087700E+02 0.15370973978E+02 0.14678577731E+02
 0.13989462932E+02 0.13318153426E+02 0.12678414223E+02 0.12082571956E+02 0.11540988838E+02
 0.11061777358E+02 0.10650788862E+02 0.10311848597E+02 0.10047161852E+02 0.98577936878E+01
 0.97441289234E+01 0.97062413819E+01 0.97441289234E+01 0.98577936878E+01 0.10047161852E+02
 0.10311848597E+02 0.10650788862E+02 0.11061777358E+02 0.11540988838E+02 0.12082571956E+02
 0.12678414223E+02 0.13318153426E+02 0.13989462932E+02 0.14674343799E+02 0.15471691017E+02
 0.16258952955E+02 0.17020636707E+02 0.17742383336E+02 0.18408802189E+02 0.19001177473E+02
 0.19506076075E+02 0.19916597512E+02 0.20231224185E+02 0.20451999070E+02 0.20582421463E+02
 0.20625506199E+02 0.20582421463E+02 0.20451999070E+02 0.20231224185E+02 0.19916597512E+02
 0.19506076075E+02 0.19001177473E+02 0.18408802189E+02 0.17742383336E+02 0.17020636707E+02
 0.16258952955E+02 0.15471691017E+02 0.14674343799E+02 0.13883112278E+02 0.13114253546E+02
 0.12383276901E+02 0.11704122551E+02 0.11088481296E+02 0.10545386967E+02 0.10081148184E+02
 0.96996061837E+01 0.94026384824E+01 0.91907897836E+01 0.90639054105E+01 0.90216601480E+01
 0.90639054105E+01 0.91907897836E+01 0.94026384824E+01 0.96996061837E+01 0.10081148184E+02
 0.10545386967E+02 0.11088481296E+02 0.11704122551E+02 0.12383276901E+02 0.13114253546E+02
 0.13883112278E+02 0.14663242814E+02 0.15550297049E+02 0.16429287225E+02 0.17283619669E+02
 0.18096121123E+02 0.18842935982E+02 0.19503283028E+02 0.20063848922E+02 0.20518324037E+02
 0.20865994577E+02 0.21109706494E+02 0.21253612203E+02 0.21301143836E+02 0.21253612203E+02
 0.21109706494E+02 0.20865994577E+02 0.20518324037E+02 0.20063848922E+02 0.19503283028E+02
 0.18842935982E+02 0.18096121123E+02 0.17283619669E+02 0.16429287225E+02 0.15550297049E+02
 0.14663242814E+02 0.13785484087E+02 0.12934534886E+02 0.12127208378E+02 0.11378677292E+02
 0.10701652387E+02 0.10105857624E+02 0.95979034757E+01 0.91815605483E+01 0.88583481958E+01
 0.86282991414E+01 0.84907458992E+01 0.84449897560E+01 0.84907458992E+01 0.86282991414E+01
 0.88583481958E+01 0.91815605483E+01 0.95979034757E+01 0.10105857624E+02 0.10701652387E+02
 0.11378677292E+02 0.12127208378E+02 0.12934534886E+02 0.13785484087E+02 0.14646382720E+02
 0.15607274859E+02 0.16562641480E+02 0.17494855876E+02 0.18379655694E+02 0.19188904437E+02
 0.19901594325E+02 0.20504746471E+02 0.20992700817E+02 0.21365487745E+02 0.21626628211E+02
 0.21780785068E+02 0.21831699672E+02 0.21780785068E+02 0.21626628211E+02 0.21365487745E+02
 0.20992700817E+02 0.20504746471E+02 0.19901594325E+02 0.19188904437E+02 0.18379655694E+02
 0.17494855876E+02 0.16562641480E+02 0.15607274859E+02 0.14646382720E+02 0.13698068551E+02
 0.12780680833E+02 0.11911936203E+02 0.11107887825E+02 0.10381981833E+02 0.97444257972E+01
 0.92020051617E+01 0.87583654427E+01 0.84146706530E+01 0.81704805283E+01 0.80246660379E+01
 0.79761963262E+01 0.80246660379E+01 0.81704805283E+01 0.84146706530E+01 0.87583654427E+01
 0.92020051617E+01 0.97444257972E+01 0.10381981833E+02 0.11107887825E+02 0.11911936203E+02
 0.12780680833E+02 0.13698068551E+02 0.14626644432E+02 0.15645172450E+02 0.16660822070E+02
 0.17653407178E+02 0.18591886279E+02 0.19447083966E+02 0.20198011498E+02 0.20832106068E+02
 0.21344313876E+02 0.21735285524E+02 0.22009059098E+02 0.22170659761E+02 0.22224033902E+02
 0.22170659761E+02 0.22009059098E+02 0.21735285524E+02 0.21344313876E+02 0.20832106068E+02
 0.20198011498E+02 0.19447083966E+02 0.18591886279E+02 0.17653407178E+02 0.16660822070E+02
 0.15645172450E+02 0.14626644432E+02 0.13623764540E+02 0.12655379035E+02 0.11739777372E+02
 0.10893594379E+02 0.10130768684E+02 0.94618210243E+01 0.88936196509E+01 0.84296651748E+01
 0.80708025649E+01 0.78161872442E+01 0.76643031977E+01 0.76138435594E+01 0.76643031977E+01
 0.78161872442E+01 0.80708025649E+01 0.84296651748E+01 0.88936196509E+01 0.94618210243E+01
 0.10130768684E+02 0.10893594379E+02 0.11739777372E+02 0.12655379035E+02 0.13623764540E+02
 0.14608070225E+02 0.15667859545E+02 0.16727052148E+02 0.17761571164E+02 0.18736760561E+02
 0.19623152006E+02 0.20399881397E+02 0.21054769917E+02 0.21583248955E+02 0.21986427769E+02
 0.22268699841E+02 0.22435320541E+02 0.22490355995E+02 0.22435320541E+02 0.22268699841E+02
 0.21986427769E+02 0.21583248955E+02 0.21054769917E+02 0.20399881397E+02 0.19623152006E+02
 0.18736760561E+02 0.17761571164E+02 0.16727052148E+02 0.15667859545E+02 0.14608070225E+02
 0.13566445155E+02 0.12562090779E+02 0.11613622507E+02 0.10738023883E+02 0.99495339388E+01
 0.92588571462E+01 0.86728882574E+01 0.81949962641E+01 0.78257736818E+01 0.75640664939E+01
 0.74080664978E+01 0.73562597614E+01 0.74080664978E+01 0.75640664939E+01 0.78257736818E+01
 0.81949962641E+01 0.86728882574E+01 0.92588571462E+01 0.99495339388E+01 0.10738023883E+02
 0.11613622507E+02 0.12562090779E+02 0.13566445155E+02 0.14594824225E+02 0.15679405461E+02
 0.16764790552E+02 0.17823779742E+02 0.18820265045E+02 0.19724655485E+02 0.20516208368E+02
 0.21183010816E+02 0.21720805415E+02 0.22130980652E+02 0.22418134599E+02 0.22587645877E+02
 0.22643639377E+02 0.22587645877E+02 0.22418134599E+02 0.22130980652E+02 0.21720805415E+02
 0.21183010816E+02 0.20516208368E+02 0.19724655485E+02 0.18820265045E+02 0.17823779742E+02
 0.16764790552E+02 0.15679405461E+02 0.14594824225E+02 0.13530061098E+02 0.12504336017E+02
 0.11536422359E+02 0.10643482490E+02 0.98399122568E+01 0.91365083826E+01 0.85401671412E+01
 0.80541664865E+01 0.76789371505E+01 0.74131308896E+01 0.72547576831E+01 0.72021752720E+01
 0.72547576831E+01 0.74131308896E+01 0.76789371505E+01 0.80541664865E+01 0.85401671412E+01
 0.91365083826E+01 0.98399122568E+01 0.10643482490E+02 0.11536422359E+02 0.12504336017E+02
 0.13530061098E+02 0.14590023992E+02 0.15682875105E+02 0.16776974455E+02 0.17843996276E+02
 0.18847450640E+02 0.19757714488E+02 0.20554093596E+02 0.21224769686E+02 0.21765592468E+02
 0.22178043772E+02 0.22466788270E+02 0.22637242601E+02 0.22693549036E+02 0.22637242601E+02
 0.22466788270E+02 0.22178043772E+02 0.21765592468E+02 0.21224769686E+02 0.20554093596E+02
 0.19757714488E+02 0.18847450640E+02 0.17843996276E+02 0.16776974455E+02 0.15682875105E+02
 0.14590023992E+02 0.13517567924E+02 0.12484757092E+02 0.11510410802E+02 0.10611745557E+02
 0.98032052613E+01 0.90956141636E+01 0.84958665070E+01 0.80072078112E+01 0.76300131069E+01
 0.73628679510E+01 0.72037206123E+01 0.71508853683E+01 0.72037206123E+01 0.73628679510E+01
 0.76300131069E+01 0.80072078112E+01 0.84958665070E+01 0.90956141636E+01 0.98032052613E+01
 0.10611745557E+02 0.11510410802E+02 0.12484757092E+02 0.13517567924E+02 0.14594824225E+02
 0.15679405461E+02 0.16764790552E+02 0.17823779742E+02 0.18820265045E+02 0.19724655485E+02
 0.20516208368E+02 0.21183010816E+02 0.21720805415E+02 0.22130980652E+02 0.22418134599E+02
 0.22587645877E+02 0.22643639377E+02 0.22587645877E+02 0.22418134599E+02 0.22130980652E+02
 0.21720805415E+02 0.21183010816E+02 0.20516208368E+02 0.19724655485E+02 0.18820265045E+02
 0.17823779742E+02 0.16764790552E+02 0.15679405461E+02 0.14594824225E+02 0.13530061098E+02
 0.12504336017E+02 0.11536422359E+02 0.10643482490E+02 0.98399122568E+01 0.91365083826E+01
 0.85401671412E+01 0.80541664865E+01 0.76789371505E+01 0.74131308896E+01 0.72547576831E+01
 0.72021752720E+01 0.72547576831E+01 0.74131308896E+01 0.76789371505E+01 0.80541664865E+01
 0.85401671412E+01 0.91365083826E+01 0.98399122568E+01 0.10643482490E+02 0.11536422359E+02
 0.12504336017E+02 0.13530061098E+02 0.14608070225E+02 0.15667859545E+02 0.16727052148E+02
 0.17761571164E+02 0.18736760561E+02 0.19623152006E+02 0.20399881397E+02 0.21054769917E+02
 0.21583248955E+02 0.21986427769E+02 0.22268699841E+02 0.22435320541E+02 0.22490355995E+02
 0.22435320541E+02 0.22268699841E+02 0.21986427769E+02 0.21583248955E+02 0.21054769917E+02
 0.20399881397E+02 0.19623152006E+02 0.18736760561E+02 0.17761571164E+02 0.16727052148E+02
 0.15667859545E+02 0.14608070225E+02 0.13566445155E+02 0.12562090779E+02 0.11613622507E+02
 0.10738023883E+02 0.99495339388E+01 0.92588571462E+01 0.86728882574E+01 0.81949962641E+01
 0.78257736818E+01 0.75640664939E+01 0.74080664978E+01 0.73562597614E+01 0.74080664978E+01
 0.75640664939E+01 0.78257736818E+01 0.81949962641E+01 0.86728882574E+01 0.92588571462E+01
 0.99495339388E+01 0.10738023883E+02 0.11613622507E+02 0.12562090779E+02 0.13566445155E+02
 0.14626644432E+02 0.15645172450E+02 0.16660822070E+02 0.17653407178E+02 0.18591886279E+02
 0.19447083966E+02 0.20198011498E+02 0.20832106068E+02 0.21344313876E+02 0.21735285524E+02
 0.22009059098E+02 0.22170659761E+02 0.22224033902E+02 0.22170659761E+02 0.22009059098E+02
 0.21735285524E+02 0.21344313876E+02 0.20832106068E+02 0.20198011498E+02 0.19447083966E+02
 0.18591886279E+02 0.17653407178E+02 0.16660822070E+02 0.15645172450E+02 0.14626644432E+02
 0.13623764540E+02 0.12655379035E+02 0.11739777372E+02 0.10893594379E+02 0.10130768684E+02
 0.94618210243E+01 0.88936196509E+01 0.84296651748E+01 0.80708025649E+01 0.78161872442E+01
 0.76643031977E+01 0.76138435594E+01 0.76643031977E+01 0.78161872442E+01 0.80708025649E+01
 0.84296651748E+01 0.88936196509E+01 0.94618210243E+01 0.10130768684E+02 0.10893594379E+02
 0.11739777372E+02 0.12655379035E+02 0.13623764540E+02 0.14646382720E+02 0.15607274859E+02
 0.16562641480E+02 0.17494855876E+02 0.18379655694E+02 0.19188904437E+02 0.19901594325E+02
 0.20504746471E+02 0.20992700817E+02 0.21365487745E+02 0.21626628211E+02 0.21780785068E+02
 0.21831699672E+02 0.21780785068E+02 0.21626628211E+02 0.21365487745E+02 0.20992700817E+02
 0.20504746471E+02 0.19901594325E+02 0.19188904437E+02 0.18379655694E+02 0.17494855876E+02
 0.16562641480E+02 0.15607274859E+02 0.14646382720E+02 0.13698068551E+02 0.12780680833E+02
 0.11911936203E+02 0.11107887825E+02 0.10381981833E+02 0.97444257972E+01 0.92020051617E+01
 0.87583654427E+01 0.84146706530E+01 0.81704805283E+01 0.80246660379E+01 0.79761963262E+01
 0.80246660379E+01 0.81704805283E+01 0.84146706530E+01 0.87583654427E+01 0.92020051617E+01
 0.97444257972E+01 0.10381981833E+02 0.11107887825E+02 0.11911936203E+02 0.12780680833E+02
 0.13698068551E+02 0.14663242814E+02 0.15550297049E+02 0.16429287225E+02 0.17283619669E+02
 0.18096121123E+02 0.18842935982E+02 0.19503283028E+02 0.20063848922E+02 0.20518324037E+02
 0.20865994577E+02 0.21109706494E+02 0.21253612203E+02 0.21301143836E+02 0.21253612203E+02
 0.21109706494E+02 0.20865994577E+02 0.20518324037E+02 0.20063848922E+02 0.19503283028E+02
 0.18842935982E+02 0.18096121123E+02 0.17283619669E+02 0.16429287225E+02 0.15550297049E+02
 0.14663242814E+02 0.13785484087E+02 0.12934534886E+02 0.12127208378E+02 0.11378677292E+02
 0.10701652387E+02 0.10105857624E+02 0.95979034757E+01 0.91815605483E+01 0.88583481958E+01
 0.86282991414E+01 0.84907458992E+01 0.84449897560E+01 0.84907458992E+01 0.86282991414E+01
 0.88583481958E+01 0.91815605483E+01 0.95979034757E+01 0.10105857624E+02 0.10701652387E+02
 0.11378677292E+02 0.12127208378E+02 0.12934534886E+02 0.13785484087E+02 0.14674343799E+02
 0.15471691017E+02 0.16258952955E+02 0.17020636707E+02 0.17742383336E+02 0.18408802189E+02
 0.19001177473E+02 0.19506076075E+02 0.19916597512E+02 0.20231224185E+02 0.20451999070E+02
 0.20582421463E+02 0.20625506199E+02 0.20582421463E+02 0.20451999070E+02 0.20231224185E+02
 0.19916597512E+02 0.19506076075E+02 0.19001177473E+02 0.18408802189E+02 0.17742383336E+02
 0.17020636707E+02 0.16258952955E+02 0.15471691017E+02 0.14674343799E+02 0.13883112278E+02
 0.13114253546E+02 0.12383276901E+02 0.11704122551E+02 0.11088481296E+02 0.10545386967E+02
 0.10081148184E+02 0.96996061837E+01 0.94026384824E+01 0.91907897836E+01 0.90639054105E+01
 0.90216601480E+01 0.90639054105E+01 0.91907897836E+01 0.94026384824E+01 0.96996061837E+01
 0.10081148184E+02 0.10545386967E+02 0.11088481296E+02 0.11704122551E+02 0.12383276901E+02
 0.13114253546E+02 0.13883112278E+02 0.14678577731E+02 0.15370973978E+02 0.16052087700E+02
 0.16707965778E+02 0.17325778744E+02 0.17894169626E+02 0.18401990076E+02 0.18837115983E+02
 0.19192235775E+02 0.19465060880E+02 0.19656764638E+02 0.19770085636E+02 0.19807529334E+02
 0.19770085636E+02 0.19656764638E+02 0.19465060880E+02 0.19192235775E+02 0.18837115983E+02
 0.18401990076E+02 0.17894169626E+02 0.17325778744E+02 0.16707965778E+02 0.16052087700E+02
 0.15370973978E+02 0.14678577731E+02 0.13989462932E+02 0.13318153426E+02 0.12678414223E+02
 0.12082571956E+02 0.11540988838E+02 0.11061777358E+02 0.10650788862E+02 0.10311848597E+02
 0.10047161852E+02 0.98577936878E+01 0.97441289234E+01 0.97062413819E+01 0.97441289234E+01
 0.98577936878E+01 0.10047161852E+02 0.10311848597E+02 0.10650788862E+02 0.11061777358E+02
 0.11540988838E+02 0.12082571956E+02 0.12678414223E+02 0.13318153426E+02 0.13989462932E+02
 0.14676671110E+02 0.15249948748E+02 0.15811739718E+02 0.16350093767E+02 0.16854081515E+02
 0.17314231362E+02 0.17722832095E+02 0.18073875580E+02 0.18361772711E+02 0.18583629021E+02
 0.18739771798E+02 0.18832135071E+02 0.18862660088E+02 0.18832135071E+02 0.18739771798E+02
 0.18583629021E+02 0.18361772711E+02 0.18073875580E+02 0.17722832095E+02 0.17314231362E+02
 0.16854081515E+02 0.16350093767E+02 0.15811739718E+02 0.15249948748E+02 0.14676671110E+02
 0.14104335888E+02 0.13545247480E+02 0.13010984781E+02 0.12511881323E+02 0.12056660549E+02
 0.11652272954E+02 0.11303938618E+02 0.11015353889E+02 0.10788991137E+02 0.10626414265E+02
 0.10528549296E+02 0.10495878053E+02 0.10528549296E+02 0.10626414265E+02 0.10788991137E+02
 0.11015353889E+02 0.11303938618E+02 0.11652272954E+02 0.12056660549E+02 0.12511881323E+02
 0.13010984781E+02 0.13545247480E+02 0.14104335888E+02 0.14670760376E+02 0.15112423357E+02
 0.15543419207E+02 0.15954242224E+02 0.16336221835E+02 0.16681987137E+02 0.16985827170E+02
 0.17243888452E+02 0.17454156374E+02 0.17616176835E+02 0.17730381057E+02 0.17797962151E+02
 0.17820295457E+02 0.17797962151E+02 0.17730381057E+02 0.17616176835E+02 0.17454156374E+02
 0.17243888452E+02 0.16985827170E+02 0.16681987137E+02 0.16336221835E+02 0.15954242224E+02
 0.15543419207E+02 0.15112423357E+02 0.14670760376E+02 0.14228256866E+02 0.13794548687E+02
 0.13378624967E+02 0.12988479465E+02 0.12630908398E+02 0.12311467357E+02 0.12034564402E+02
 0.11803635139E+02 0.11621331293E+02 0.11489664368E+02 0.11410076542E+02 0.11383448106E+02
 0.11410076542E+02 0.11489664368E+02 0.11621331293E+02 0.11803635139E+02 0.12034564402E+02
 0.12311467357E+02 0.12630908398E+02 0.12988479465E+02 0.13378624967E+02 0.13794548687E+02
 0.14228256866E+02 0.14663670305E+02 0.14963570943E+02 0.15254567703E+02 0.15529975289E+02
 0.15783690674E+02 0.16010628392E+02 0.16207090208E+02 0.16370991219E+02 0.16501867711E+02
 0.16600622390E+02 0.16669022413E+02 0.16709040329E+02 0.16722191122E+02 0.16709040329E+02
 0.16669022413E+02 0.16600622390E+02 0.16501867711E+02 0.16370991219E+02 0.16207090208E+02
 0.16010628392E+02 0.15783690674E+02 0.15529975289E+02 0.15254567703E+02 0.14963570943E+02
 0.14663670305E+02 0.14361698449E+02 0.14064252115E+02 0.13777400051E+02 0.13506510243E+02
 0.13256207054E+02 0.13030442570E+02 0.12832636681E+02 0.12665819108E+02 0.12532706286E+02
 0.12435672149E+02 0.12376617225E+02 0.12356787101E+02 0.12376617225E+02 0.12435672149E+02
 0.12532706286E+02 0.12665819108E+02 0.12832636681E+02 0.13030442570E+02 0.13256207054E+02
 0.13506510243E+02 0.13777400051E+02 0.14064252115E+02 0.14361698449E+02 0.14658119078E+02
 0.14809116954E+02 0.14953771578E+02 0.15088492340E+02 0.15209971120E+02 0.15315540306E+02
 0.15403508734E+02 0.15473391981E+02 0.15525952516E+02 0.15562993819E+02 0.15586912610E+02
 0.15600090252E+02 0.15604269907E+02 0.15600090252E+02 0.15586912610E+02 0.15562993819E+02
 0.15525952516E+02 0.15473391981E+02 0.15403508734E+02 0.15315540306E+02 0.15209971120E+02
 0.15088492340E+02 0.14953771578E+02 0.14809116954E+02 0.14658119078E+02 0.14504335999E+02
 0.14351064437E+02 0.14201222028E+02 0.14057348698E+02 0.13921715024E+02 0.13796499359E+02
 0.13683969405E+02 0.13586590616E+02 0.13506995707E+02 0.13447790412E+02 0.13411230451E+02
 0.13398860310E+02 0.13411230451E+02 0.13447790412E+02 0.13506995707E+02 0.13586590616E+02
 0.13683969405E+02 0.13796499359E+02 0.13921715024E+02 0.14057348698E+02 0.14201222028E+02
 0.14351064437E+02 0.14504335999E+02 0.14656037005E+02 0.14654527825E+02 0.14649865581E+02
 0.14641704813E+02 0.14629656158E+02 0.14613531475E+02 0.14593612070E+02 0.14570862281E+02
 0.14547003816E+02 0.14524388172E+02 0.14505657583E+02 0.14493255898E+02 0.14488913507E+02
 0.14493255898E+02 0.14505657583E+02 0.14524388172E+02 0.14547003816E+02 0.14570862281E+02
 0.14593612070E+02 0.14613531475E+02 0.14629656158E+02 0.14641704813E+02 0.14649865581E+02
 0.14654527825E+02 0.14656037005E+02 0.14654527825E+02 0.14649865581E+02 0.14641704813E+02
 0.14629656158E+02 0.14613531475E+02 0.14593612070E+02 0.14570862281E+02 0.14547003816E+02
 0.14524388172E+02 0.14505657583E+02 0.14493255898E+02 0.14488913507E+02 0.14493255898E+02
 0.14505657583E+02 0.14524388172E+02 0.14547003816E+02 0.14570862281E+02 0.14593612070E+02
 0.14613531475E+02 0.14629656158E+02 0.14641704813E+02 0.14649865581E+02 0.14654527825E+02
 0.14658119078E+02 0.14504335999E+02 0.14351064437E+02 0.14201222028E+02 0.14057348698E+02
 0.13921715024E+02 0.13796499359E+02 0.13683969405E+02 0.13586590616E+02 0.13506995707E+02
 0.13447790412E+02 0.13411230451E+02 0.13398860310E+02 0.13411230451E+02 0.13447790412E+02
 0.13506995707E+02 0.13586590616E+02 0.13683969405E+02 0.13796499359E+02 0.13921715024E+02
 0.14057348698E+02 0.14201222028E+02 0.14351064437E+02 0.14504335999E+02 0.14658119078E+02
 0.14809116954E+02 0.14953771578E+02 0.15088492340E+02 0.15209971120E+02 0.15315540306E+02
 0.15403508734E+02 0.15473391981E+02 0.15525952516E+02 0.15562993819E+02 0.15586912610E+02
 0.15600090252E+02 0.15604269907E+02 0.15600090252E+02 0.15586912610E+02 0.15562993819E+02
 0.15525952516E+02 0.15473391981E+02 0.15403508734E+02 0.15315540306E+02 0.15209971120E+02
 0.15088492340E+02 0.14953771578E+02 0.14809116954E+02 0.14663670305E+02 0.14361698449E+02
 0.14064252115E+02 0.13777400051E+02 0.13506510243E+02 0.13256207054E+02 0.13030442570E+02
 0.12832636681E+02 0.12665819108E+02 0.12532706286E+02 0.12435672149E+02 0.12376617225E+02
 0.12356787101E+02 0.12376617225E+02 0.12435672149E+02 0.12532706286E+02 0.12665819108E+02
 0.12832636681E+02 0.13030442570E+02 0.13256207054E+02 0.13506510243E+02 0.13777400051E+02
 0.14064252115E+02 0.14361698449E+02 0.14663670305E+02 0.14963570943E+02 0.15254567703E+02
 0.15529975289E+02 0.15783690674E+02 0.16010628392E+02 0.16207090208E+02 0.16370991219E+02
 0.16501867711E+02 0.16600622390E+02 0.16669022413E+02 0.16709040329E+02 0.16722191122E+02
 0.16709040329E+02 0.16669022413E+02 0.16600622390E+02 0.16501867711E+02 0.16370991219E+02
 0.16207090208E+02 0.16010628392E+02 0.15783690674E+02 0.15529975289E+02 0.15254567703E+02
 0.14963570943E+02 0.14670760376E+02 0.14228256866E+02 0.13794548687E+02 0.13378624967E+02
 0.12988479465E+02 0.12630908398E+02 0.12311467357E+02 0.12034564402E+02 0.11803635139E+02
 0.11621331293E+02 0.11489664368E+02 0.11410076542E+02 0.11383448106E+02 0.11410076542E+02
 0.11489664368E+02 0.11621331293E+02 0.11803635139E+02 0.12034564402E+02 0.12311467357E+02
 0.12630908398E+02 0.12988479465E+02 0.13378624967E+02 0.13794548687E+02 0.14228256866E+02
 0.14670760376E+02 0.15112423357E+02 0.15543419207E+02 0.15954242224E+02 0.16336221835E+02
 0.16681987137E+02 0.16985827170E+02 0.17243888452E+02 0.17454156374E+02 0.17616176835E+02
 0.17730381057E+02 0.17797962151E+02 0.17820295457E+02 0.17797962151E+02 0.17730381057E+02
 0.17616176835E+02 0.17454156374E+02 0.17243888452E+02 0.16985827170E+02 0.16681987137E+02
 0.16336221835E+02 0.15954242224E+02 0.15543419207E+02 0.15112423357E+02 0.14676671110E+02
 0.14104335888E+02 0.13545247480E+02 0.13010984781E+02 0.12511881323E+02 0.12056660549E+02
 0.11652272954E+02 0.11303938618E+02 0.11015353889E+02 0.10788991137E+02 0.10626414265E+02
 0.10528549296E+02 0.10495878053E+02 0.10528549296E+02 0.10626414265E+02 0.10788991137E+02
 0.11015353889E+02 0.11303938618E+02 0.11652272954E+02 0.12056660549E+02 0.12511881323E+02
 0.13010984781E+02 0.13545247480E+02 0.14104335888E+02 0.14676671110E+02 0.15249948748E+02
 0.15811739718E+02 0.16350093767E+02 0.16854081515E+02 0.17314231362E+02 0.17722832095E+02
 0.18073875580E+02 0.18361772711E+02 0.18583629021E+02 0.18739771798E+02 0.18832135071E+02
 0.18862660088E+02 0.18832135071E+02 0.18739771798E+02 0.18583629021E+02 0.18361772711E+02
 0.18073875580E+02 0.17722832095E+02 0.17314231362E+02 0.16854081515E+02 0.16350093767E+02
 0.15811739718E+02 0.15249948748E+02 0.14678577731E+02 0.13989462932E+02 0.13318153426E+02
 0.12678414223E+02 0.12082571956E+02 0.11540988838E+02 0.11061777358E+02 0.10650788862E+02
 0.10311848597E+02 0.10047161852E+02 0.98577936878E+01 0.97441289234E+01 0.97062413819E+01
 0.97441289234E+01 0.98577936878E+01 0.10047161852E+02 0.10311848597E+02 0.10650788862E+02
 0.11061777358E+02 0.11540988838E+02 0.12082571956E+02 0.12678414223E+02 0.13318153426E+02
 0.13989462932E+02 0.14678577731E+02 0.15370973978E+02 0.16052087700E+02 0.16707965778E+02
 0.17325778744E+02 0.17894169626E+02 0.18401990076E+02 0.18837115983E+02 0.19192235775E+02
 0.19465060880E+02 0.19656764638E+02 0.19770085636E+02 0.19807529334E+02 0.19770085636E+02
 0.19656764638E+02 0.19465060880E+02 0.19192235775E+02 0.18837115983E+02 0.18401990076E+02
 0.17894169626E+02 0.17325778744E+02 0.16707965778E+02 0.16052087700E+02 0.15370973978E+02
 0.14674343799E+02 0.13883112278E+02 0.13114253546E+02 0.12383276901E+02 0.11704122551E+02
 0.11088481296E+02 0.10545386967E+02 0.10081148184E+02 0.96996061837E+01 0.94026384824E+01
 0.91907897836E+01 0.90639054105E+01 0.90216601480E+01 0.90639054105E+01 0.91907897836E+01
 0.94026384824E+01 0.96996061837E+01 0.10081148184E+02 0.10545386967E+02 0.11088481296E+02
 0.11704122551E+02 0.12383276901E+02 0.13114253546E+02 0.13883112278E+02 0.14674343799E+02
 0.15471691017E+02 0.16258952955E+02 0.17020636707E+02 0.17742383336E+02 0.18408802189E+02
 0.19001177473E+02 0.19506076075E+02 0.19916597512E+02 0.20231224185E+02 0.20451999070E+02
 0.20582421463E+02 0.20625506199E+02 0.20582421463E+02 0.20451999070E+02 0.20231224185E+02
 0.19916597512E+02 0.19506076075E+02 0.19001177473E+02 0.18408802189E+02 0.17742383336E+02
 0.17020636707E+02 0.16258952955E+02 0.15471691017E+02 0.14663242814E+02 0.13785484087E+02
 0.12934534886E+02 0.12127208378E+02 0.11378677292E+02 0.10701652387E+02 0.10105857624E+02
 0.95979034757E+01 0.91815605483E+01 0.88583481958E+01 0.86282991414E+01 0.84907458992E+01
 0.84449897560E+01 0.84907458992E+01 0.86282991414E+01 0.88583481958E+01 0.91815605483E+01
 0.95979034757E+01 0.10105857624E+02 0.10701652387E+02 0.11378677292E+02 0.12127208378E+02
 0.12934534886E+02 0.13785484087E+02 0.14663242814E+02 0.15550297049E+02 0.16429287225E+02
 0.17283619669E+02 0.18096121123E+02 0.18842935982E+02 0.19503283028E+02 0.20063848922E+02
 0.20518324037E+02 0.20865994577E+02 0.21109706494E+02 0.21253612203E+02 0.21301143836E+02
 0.21253612203E+02 0.21109706494E+02 0.20865994577E+02 0.20518324037E+02 0.20063848922E+02
 0.19503283028E+02 0.18842935982E+02 0.18096121123E+02 0.17283619669E+02 0.16429287225E+02
 0.15550297049E+02 0.14646382720E+02 0.13698068551E+02 0.12780680833E+02 0.11911936203E+02
 0.11107887825E+02 0.10381981833E+02 0.97444257972E+01 0.92020051617E+01 0.87583654427E+01
 0.84146706530E+01 0.81704805283E+01 0.80246660379E+01 0.79761963262E+01 0.80246660379E+01
 0.81704805283E+01 0.84146706530E+01 0.87583654427E+01 0.92020051617E+01 0.97444257972E+01
 0.10381981833E+02 0.11107887825E+02 0.11911936203E+02 0.12780680833E+02 0.13698068551E+02
 0.14646382720E+02 0.15607274859E+02 0.16562641480E+02 0.17494855876E+02 0.18379655694E+02
 0.19188904437E+02 0.19901594325E+02 0.20504746471E+02 0.20992700817E+02 0.21365487745E+02
 0.21626628211E+02 0.21780785068E+02 0.21831699672E+02 0.21780785068E+02 0.21626628211E+02
 0.21365487745E+02 0.20992700817E+02 0.20504746471E+02 0.19901594325E+02 0.19188904437E+02
 0.18379655694E+02 0.17494855876E+02 0.16562641480E+02 0.15607274859E+02 0.14626644432E+02
 0.13623764540E+02 0.12655379035E+02 0.11739777372E+02 0.10893594379E+02 0.10130768684E+02
 0.94618210243E+01 0.88936196509E+01 0.84296651748E+01 0.80708025649E+01 0.78161872442E+01
 0.76643031977E+01 0.76138435594E+01 0.76643031977E+01 0.78161872442E+01 0.80708025649E+01
 0.84296651748E+01 0.88936196509E+01 0.94618210243E+01 0.10130768684E+02 0.10893594379E+02
 0.11739777372E+02 0.12655379035E+02 0.13623764540E+02 0.14626644432E+02 0.15645172450E+02
 0.16660822070E+02 0.17653407178E+02 0.18591886279E+02 0.19447083966E+02 0.20198011498E+02
 0.20832106068E+02 0.21344313876E+02 0.21735285524E+02 0.22009059098E+02 0.22170659761E+02
 0.22224033902E+02 0.22170659761E+02 0.22009059098E+02 0.21735285524E+02 0.21344313876E+02